 Gaussian 16, Revision A.03,
 Gaussian 16:  EM64L-G16RevA.03 25-Dec-2016

 ----------------------------------------------------------------------
 #P m062x/cc-pVTZ opt=(calcfc,maxcycles=900,) freq IOP(7/33=1,2/16=3) s
 cf=(maxcycle=900)
 ----------------------------------------------------------------------

 ------------------------------
 Gaussian input prepared by ASE
 ------------------------------
 Symbolic Z-matrix:
 Charge =  0 Multiplicity = 2

 SCF Done:  E(UM062X) =  -76.6065750441     A.U. after   20 cycles
 SCF Done:  E(UM062X) =  -76.6066108065     A.U. after   12 cycles
 Optimization completed.
    -- Stationary point found.
 Normal termination of Gaussian 16 at Sat Jan  6 14:17:58 2024.

 ----------------------------------------------------------------------
 #P Geom=AllCheck Guess=TCheck SCRF=Check Test GenChk UM062X/CC-pVTZ Fr
 eq
 ----------------------------------------------------------------------

 Structure from the checkpoint file:  "/scratch/harris.se/guassian_scratch/Gau-22529.chk"
 ------------------------------
 Gaussian input prepared by ASE
 ------------------------------
 Charge =  0 Multiplicity = 2

                         Standard orientation:
 ---------------------------------------------------------------------
 Center     Atomic      Atomic             Coordinates (Angstroms)
 Number     Number       Type             X           Y           Z
 ---------------------------------------------------------------------
      1          6           0        0.000052    0.470113   -0.000000
      2          6           0        0.000052   -0.724881    0.000000
      3          1           0       -0.000626    1.528605   -0.000000
 ---------------------------------------------------------------------

 SCF Done:  E(UM062X) =  -76.6066108065     A.U. after    1 cycles

 The electronic state is 2-A'.
 Alpha  occ. eigenvalues --  -10.60347 -10.56197  -0.87634  -0.63135  -0.46843
 Alpha  occ. eigenvalues --   -0.38223  -0.38223
 Alpha virt. eigenvalues --    0.06368   0.06368   0.09428   0.22990   0.26817
 Alpha virt. eigenvalues --    0.32451   0.32451   0.44368   0.44368   0.45158
 Alpha virt. eigenvalues --    0.48060   0.62214   0.62214   0.71284   0.71285

  Beta  occ. eigenvalues --  -10.58766 -10.56053  -0.84974  -0.61853  -0.36206
  Beta  occ. eigenvalues --   -0.36206
  Beta virt. eigenvalues --   -0.19507   0.08263   0.08263   0.09532   0.15433
  Beta virt. eigenvalues --    0.25216   0.31961   0.31961   0.43768   0.43768
  Beta virt. eigenvalues --    0.45339   0.47504   0.62272   0.62272   0.69601

 Mulliken charges and spin densities:
               1          2
     1  C   -0.098743  -0.207058
     2  C   -0.083123   1.191719
     3  H    0.181866   0.015339
 Sum of Mulliken charges =  -0.00000   1.00000

 Dipole moment (field-independent basis, Debye):
    X=             -0.0003    Y=              0.7592    Z=             -0.0000  Tot=              0.7592
 Quadrupole moment (field-independent basis, Debye-Ang):
   XX=            -12.8041   YY=             -8.1637   ZZ=            -12.8041
   XY=             -0.0020   XZ=              0.0000   YZ=             -0.0000

  Exact polarizability:  15.937   0.006  26.025  -0.000   0.000  15.937
 Approx polarizability:  14.968   0.005  37.669   0.000  -0.000  14.968

                      1                      2                      3
                     A'                     A'                     A'
 Frequencies --    500.5685              2148.3860              3528.2576
 Red. masses --      1.3344                 5.5799                 1.1632
 Frc consts  --      0.1970                15.1742                 8.5312
 IR Inten    --      4.3238                 3.9531                58.4586

 - Thermochemistry -
 -------------------
 Temperature   298.150 Kelvin.  Pressure   1.00000 Atm.
 Atom     1 has atomic number  6 and mass  12.00000

 Molecular mass:    25.00783 amu.
 Principal axes and moments of inertia in atomic units:
                           1         2         3
     Eigenvalues --     0.00000  40.06890  40.06890
           X           -0.00010   1.00000   0.00000
           Y            1.00000   0.00010   0.00000
           Z           -0.00000  -0.00000   1.00000
 This molecule is an asymmetric top.
 Rotational symmetry number  1.
 Rotational temperatures (Kelvin) ************     2.16162     2.16162
 Rotational constants (GHZ):      ************    45.04095    45.04095
 Zero-point vibrational energy      36947.9 (Joules/Mol)
                                    8.83077 (Kcal/Mol)
 Warning -- explicit consideration of   1 degrees of freedom as
           vibrations may cause significant error
 Vibrational temperatures:    720.21  3091.05  5076.38
          (Kelvin)

 Zero-point correction=                           0.014073 (Hartree/Particle)
 Thermal correction to Energy=                    0.017129
 Thermal correction to Enthalpy=                  0.018073
 Thermal correction to Gibbs Free Energy=        -0.000563
 Sum of electronic and zero-point Energies=            -76.592538
 Sum of electronic and thermal Energies=               -76.589482
 Sum of electronic and thermal Enthalpies=             -76.588537
 Sum of electronic and thermal Free Energies=          -76.607174

                     E (Thermal)             CV                S
                      KCal/Mol        Cal/Mol-Kelvin    Cal/Mol-Kelvin
 Total                   10.749              7.217             39.224
 Electronic               0.000              0.000              1.377
 Translational            0.889              2.981             35.587
 Rotational               0.889              2.981              1.602
 Vibrational              8.971              1.255              0.657
 Vibration     1          0.856              1.249              0.657

 Optimization completed.
    -- Stationary point found.
 Normal termination of Gaussian 16 at Sat Jan  6 14:19:20 2024.
